           4
 nstep:           19 Energy-A:  -2797.2314937556930      Energy-B:  -2797.2314905840640     
O            -0.069021       0.037991       0.160628
O            -0.089727       0.728656       1.431751
O             1.098733      -0.303750      -0.210083
I            -1.562900      -0.481962       2.788223
